 Entering Gaussian System, Link 0=gdv
 Input=0001.com
 Output=0001.log
 Initial command:
 /cm/shared/apps/gaussian/gdvH23dev/gdv/l1.exe "/local/dpadula/gauscr/Gau-61054.inp" -scrdir="/local/dpadula/gauscr/"
 Entering Link 1 = /cm/shared/apps/gaussian/gdvH23dev/gdv/l1.exe PID=     61055.
  
 Copyright (c) 1988,1990,1992,1993,1995,1998,2003,2009,2012,
            Gaussian, Inc.  All Rights Reserved.
  
 This is the private, development version of
 the Gaussian(R) DV system of programs. It is based on
 the Gaussian(R) 09 system (copyright 2009, Gaussian, Inc.),
 the Gaussian(R) 03 system (copyright 2003, Gaussian, Inc.),
 the Gaussian(R) 98 system (copyright 1998, Gaussian, Inc.),
 the Gaussian(R) 94 system (copyright 1995, Gaussian, Inc.),
 the Gaussian 92(TM) system (copyright 1992, Gaussian, Inc.),
 the Gaussian 90(TM) system (copyright 1990, Gaussian, Inc.),
 the Gaussian 88(TM) system (copyright 1988, Gaussian, Inc.),
 the Gaussian 86(TM) system (copyright 1986, Carnegie Mellon
 University), and the Gaussian 82(TM) system (copyright 1983,
 Carnegie Mellon University). Gaussian is a federally registered
 trademark of Gaussian, Inc.
  
 This software contains proprietary and confidential information,
 including trade secrets, belonging to Gaussian, Inc.
  
 This software is provided under written license and may be
 used, copied, transmitted, or stored only in accord with that
 written license.
  
 The following legend is applicable only to US Government
 contracts under FAR:
  
                    RESTRICTED RIGHTS LEGEND
  
 Use, reproduction and disclosure by the US Government is
 subject to restrictions as set forth in subparagraphs (a)
 and (c) of the Commercial Computer Software - Restricted
 Rights clause in FAR 52.227-19.
  
 Gaussian, Inc.
 340 Quinnipiac St., Bldg. 40, Wallingford CT 06492
  
  
 ---------------------------------------------------------------
 Warning -- This program may not be used in any manner that
 competes with the business of Gaussian, Inc. or will provide
 assistance to any competitor of Gaussian, Inc.  The licensee
 of this program is prohibited from giving any competitor of
 Gaussian, Inc. access to this program.  By using this program,
 the user acknowledges that Gaussian, Inc. is engaged in the
 business of creating and licensing software in the field of
 computational chemistry and represents and warrants to the
 licensee that it is not a competitor of Gaussian, Inc. and that
 it will not use this program in any manner prohibited above.
 ---------------------------------------------------------------
  

 Cite this work as:
 Gaussian Development Version, Revision H.23,
 M. J. Frisch, G. W. Trucks, H. B. Schlegel, G. E. Scuseria, 
 M. A. Robb, J. R. Cheeseman, G. Scalmani, V. Barone, B. Mennucci, 
 G. A. Petersson, H. Nakatsuji, M. Caricato, X. Li, H. P. Hratchian, 
 A. F. Izmaylov, J. Bloino, G. Zheng, J. L. Sonnenberg, W. Liang, 
 M. Hada, M. Ehara, K. Toyota, R. Fukuda, J. Hasegawa, M. Ishida, 
 T. Nakajima, Y. Honda, O. Kitao, H. Nakai, T. Vreven, 
 J. A. Montgomery, Jr., J. E. Peralta, F. Ogliaro, M. Bearpark, 
 J. J. Heyd, E. Brothers, K. N. Kudin, V. N. Staroverov, T. Keith, 
 R. Kobayashi, J. Normand, K. Raghavachari, A. Rendell, J. C. Burant, 
 S. S. Iyengar, J. Tomasi, M. Cossi, N. Rega, J. M. Millam, M. Klene, 
 J. E. Knox, J. B. Cross, V. Bakken, C. Adamo, J. Jaramillo, 
 R. Gomperts, R. E. Stratmann, O. Yazyev, A. J. Austin, R. Cammi, 
 C. Pomelli, J. W. Ochterski, R. L. Martin, K. Morokuma, 
 V. G. Zakrzewski, G. A. Voth, P. Salvador, J. J. Dannenberg, 
 S. Dapprich, P. V. Parandekar, N. J. Mayhall, A. D. Daniels, 
 O. Farkas, J. B. Foresman, J. V. Ortiz, J. Cioslowski, 
 and D. J. Fox, Gaussian, Inc., Wallingford CT, 2010.
 
 ******************************************
 Gaussian DV:  ES64L-GDVRevH.23 23-Jul-2012
                29-Jul-2015 
 ******************************************
 %nproc=16
 Will use up to   16 processors via shared memory.
 %mem=24GB
 %chk=0001.chk
 --------------------------------------------------------------
 #p td=nstates=10 cam-b3lyp cc-pVTZ eet=prop IOp(2/12=3) nosymm
 --------------------------------------------------------------
 1/38=1/1;
 2/12=3,15=1,17=6,18=5,40=1/2;
 3/5=16,6=1,11=9,16=1,25=1,30=1,74=-40/1,2,8,3;
 4//1;
 5/5=2,38=5,112=1/2;
 8/6=1,10=1,108=10/1;
 9/41=10,42=1,70=2,78=1/14;
 6/7=2,8=2,9=2,10=2/1;
 99/5=1,9=1/99;
 Leave Link    1 at Wed Jul 29 17:34:00 2015, MaxMem= 3221225472 cpu:       0.1
 (Enter /cm/shared/apps/gaussian/gdvH23dev/gdv/l101.exe)
 ----------
 triptycene
 ----------
 Symbolic Z-matrix:
 Charge =  0 Multiplicity = 1
 C                    -1.44979   0.901     0.40844 
 C                    -2.70559   1.08882   2.88315 
 C                    -2.2834    1.99746   0.6607 
 C                    -1.23001  -0.07043   1.39489 
 C                    -1.85209   0.00712   2.63569 
 C                    -2.91514   2.06925   1.91821 
 H                    -1.67803  -0.75174   3.3936 
 H                    -3.57334   2.909     2.13233 
 H                    -3.20601   1.17458   3.84442 
 N                    -2.53191   2.96965  -0.32198 
 H                    -2.90697   3.83328   0.05269 
 H                    -1.74077   3.16346  -0.92476 
 H                    -0.90947   0.69495  -0.51315 
 H                    -0.54695  -0.85187   1.07186 
 
 NAtoms=     14 NQM=        0 NQMF=       0 NMMI=     14 NMMIF=      0
                NMic=       0 NMicF=      0.
                    Isotopes and Nuclear Properties:
 (Nuclear quadrupole moments (NQMom) in fm**2, nuclear magnetic moments (NMagM)
  in nuclear magnetons)

  Atom         1           2           3           4           5           6           7           8           9          10
 IAtWgt=          12          12          12          12          12          12           1           1           1          14
 AtmWgt=  12.0000000  12.0000000  12.0000000  12.0000000  12.0000000  12.0000000   1.0078250   1.0078250   1.0078250  14.0030740
 NucSpn=           0           0           0           0           0           0           1           1           1           2
 AtZEff=   0.0000000   0.0000000   0.0000000   0.0000000   0.0000000   0.0000000   0.0000000   0.0000000   0.0000000   0.0000000
 NQMom=    0.0000000   0.0000000   0.0000000   0.0000000   0.0000000   0.0000000   0.0000000   0.0000000   0.0000000   2.0440000
 NMagM=    0.0000000   0.0000000   0.0000000   0.0000000   0.0000000   0.0000000   2.7928460   2.7928460   2.7928460   0.4037610
 AtZNuc=   6.0000000   6.0000000   6.0000000   6.0000000   6.0000000   6.0000000   1.0000000   1.0000000   1.0000000   7.0000000

  Atom        11          12          13          14
 IAtWgt=           1           1           1           1
 AtmWgt=   1.0078250   1.0078250   1.0078250   1.0078250
 NucSpn=           1           1           1           1
 AtZEff=   0.0000000   0.0000000   0.0000000   0.0000000
 NQMom=    0.0000000   0.0000000   0.0000000   0.0000000
 NMagM=    2.7928460   2.7928460   2.7928460   2.7928460
 AtZNuc=   1.0000000   1.0000000   1.0000000   1.0000000
 Leave Link  101 at Wed Jul 29 17:34:00 2015, MaxMem= 3221225472 cpu:       0.1
 (Enter /cm/shared/apps/gaussian/gdvH23dev/gdv/l202.exe)
                          Input orientation:                          
 ---------------------------------------------------------------------
 Center     Atomic      Atomic             Coordinates (Angstroms)
 Number     Number       Type             X           Y           Z
 ---------------------------------------------------------------------
      1          6           0       -1.449794    0.901002    0.408440
      2          6           0       -2.705589    1.088823    2.883146
      3          6           0       -2.283400    1.997464    0.660704
      4          6           0       -1.230010   -0.070427    1.394891
      5          6           0       -1.852093    0.007123    2.635693
      6          6           0       -2.915142    2.069255    1.918209
      7          1           0       -1.678029   -0.751739    3.393596
      8          1           0       -3.573339    2.909002    2.132334
      9          1           0       -3.206005    1.174575    3.844420
     10          7           0       -2.531909    2.969653   -0.321976
     11          1           0       -2.906966    3.833285    0.052691
     12          1           0       -1.740765    3.163459   -0.924758
     13          1           0       -0.909471    0.694948   -0.513154
     14          1           0       -0.546951   -0.851866    1.071855
 ---------------------------------------------------------------------
                    Distance matrix (angstroms):
                    1          2          3          4          5
     1  C    0.000000
     2  C    2.781451   0.000000
     3  C    1.400273   2.437852   0.000000
     4  C    1.401808   2.395015   2.434098   0.000000
     5  C    2.433417   1.399915   2.836911   1.390176   0.000000
     6  C    2.406546   1.391497   1.409104   2.773404   2.428424
     7  H    3.419766   2.168895   3.923428   2.158640   1.086549
     8  H    3.393127   2.151687   2.158828   3.861607   3.411298
     9  H    3.868472   1.087113   3.415317   3.384490   2.158018
    10  N    2.446180   3.720282   1.404482   3.726213   4.241054
    11  H    3.293659   3.947671   2.031934   4.455631   4.735416
    12  H    2.642119   4.442425   2.041491   4.012438   4.759376
    13  H    1.088000   3.862129   2.227593   2.080669   3.358106
    14  H    2.080335   3.421516   3.361991   1.087000   2.210621
                    6          7          8          9         10
     6  C    0.000000
     7  H    3.415439   0.000000
     8  H    1.088231   4.310917   0.000000
     9  H    2.143674   2.499728   2.464631   0.000000
    10  N    2.444589   5.327602   2.666813   4.586454   0.000000
    11  H    2.567495   5.804686   2.371343   4.640622   1.013362
    12  H    3.264799   5.829313   3.573358   5.371000   1.013319
    13  H    3.438454   4.236305   4.358536   4.948996   2.800560
    14  H    3.854555   2.584539   4.942445   4.343287   4.526238
                   11         12         13         14
    11  H    0.000000
    12  H    1.662558   0.000000
    13  H    3.762888   2.637046   0.000000
    14  H    5.344063   4.640527   2.244173   0.000000
 Symmetry turned off by external request.
 Stoichiometry    C6H7N
 Framework group  C1[X(C6H7N)]
 Deg. of freedom    36
 Full point group                 C1      NOp   1
 Rotational constants (GHZ):      5.6207489      2.5717084      1.7681569
 Leave Link  202 at Wed Jul 29 17:34:00 2015, MaxMem= 3221225472 cpu:       0.0
 (Enter /cm/shared/apps/gaussian/gdvH23dev/gdv/l301.exe)
 Standard basis: CC-pVTZ (5D, 7F)
 Ernie: Thresh=  0.10000D-02 Tol=  0.10000D-05 Strict=F.
 Ernie:  21 primitive shells out of 238 were deleted.
   308 basis functions,   483 primitive gaussians,   350 cartesian basis functions
    25 alpha electrons       25 beta electrons
       nuclear repulsion energy       270.7017275459 Hartrees.
 IExCor=20419 DFT=T Ex+Corr=CAM-B3LYP ExCW=0 ScaHFX=  1.000000
 ScaDFX=  1.000000  1.000000  1.000000  0.810000 ScalE2=  1.000000  1.000000
 IRadAn=      0 IRanWt=     -1 IRanGd=            0 ICorTp=0 IEmpDi=  4
  HFx wShort=  0.000000 wLong=  0.330000 cFull=  0.190000 cShort=  0.000000 cLong=  0.460000
  DFx wShort=  0.000000 wLong=  0.330000 cFull=  0.190000 cShort=  0.000000 cLong=  0.460000
 Exchange functional CAM-B3LYP number202 past maximum of 46 in XCCkDr.
 NAtoms=   14 NActive=   14 NUniq=   14 SFac= 1.00D+00 NAtFMM=   60 NAOKFM=F Big=F
 Integral buffers will be    131072 words long.
 Raffenetti 1 integral format.
 Two-electron integral symmetry is turned off.
 Leave Link  301 at Wed Jul 29 17:34:00 2015, MaxMem= 3221225472 cpu:       0.1
 (Enter /cm/shared/apps/gaussian/gdvH23dev/gdv/l302.exe)
 NPDir=0 NMtPBC=     1 NCelOv=     1 NCel=       1 NClECP=     1 NCelD=      1
         NCelK=      1 NCelE2=     1 NClLst=     1 CellRange=     0.0.
 One-electron integrals computed using PRISM.
 NBasis=   308 RedAO= T EigKep=  3.97D-05  NBF=   308
 NBsUse=   308 1.00D-06 EigRej= -1.00D+00 NBFU=   308
 Precomputing XC quadrature grid using
 IXCGrd= 4 IRadAn=           0 IRanWt=          -1 IRanGd=           0 AccXCQ= 0.00D+00.
 Generated NRdTot=       0 NPtTot=           0 NUsed=           0 NTot=          32
 NSgBfM=   350   350   350   350   350 NAtAll=    14    14.
 Leave Link  302 at Wed Jul 29 17:34:01 2015, MaxMem= 3221225472 cpu:       3.2
 (Enter /cm/shared/apps/gaussian/gdvH23dev/gdv/l308.exe)
 Leave Link  308 at Wed Jul 29 17:34:01 2015, MaxMem= 3221225472 cpu:       0.1
 (Enter /cm/shared/apps/gaussian/gdvH23dev/gdv/l303.exe)
 DipDrv:  MaxL=1.
 Leave Link  303 at Wed Jul 29 17:34:02 2015, MaxMem= 3221225472 cpu:       0.1
 (Enter /cm/shared/apps/gaussian/gdvH23dev/gdv/l401.exe)
 ExpMin= 1.03D-01 ExpMax= 1.14D+04 ExpMxC= 3.89D+02 IAcc=1 IRadAn=         1 AccDes= 0.00D+00
 Harris functional with IExCor=20419 and IRadAn=       1 diagonalized for initial guess.
 HarFok:  IExCor=20419 AccDes= 0.00D+00 IRadAn=         1 IDoV= 1 UseB2=F ITyADJ=14
 ICtDFT=  3500011 ScaDFX=  1.000000  1.000000  1.000000  1.000000
 FoFCou: FMM=F IPFlag=           0 FMFlag=      100000 FMFlg1=           0
         NFxFlg=           0 DoJE=T BraDBF=F KetDBF=T FulRan=T
         wScrn=  0.000000 ICntrl=     500 IOpCl=  0 I1Cent=   200000004 NGrid=           0
         NMat0=    1 NMatS0=      1 NMatT0=    0 NMatD0=    1 NMtDS0=    0 NMtDT0=    0
 Symmetry not used in FoFCou.
 Harris En= -275.908179047568    
 JPrj=0 DoOrth=F DoCkMO=F.
 Leave Link  401 at Wed Jul 29 17:34:02 2015, MaxMem= 3221225472 cpu:       5.7
 (Enter /cm/shared/apps/gaussian/gdvH23dev/gdv/l502.exe)
 Closed shell SCF:
 Using DIIS extrapolation, IDIIS=  1040.
 Two-electron integral symmetry not used.
 Keep R1 ints in memory in canonical form, NReq=2286490360.
 IVT=      393778 IEndB=      393778 NGot=  3221225472 MDV=   956356713
 LenX=   956356713 LenY=   956233772
 Requested convergence on RMS density matrix=1.00D-08 within 128 cycles.
 Requested convergence on MAX density matrix=1.00D-06.
 Requested convergence on             energy=1.00D-06.
 No special actions if energy rises.
 FoFCou: FMM=F IPFlag=           0 FMFlag=           0 FMFlg1=           0
         NFxFlg=           0 DoJE=F BraDBF=F KetDBF=F FulRan=T
         wScrn=  0.000000 ICntrl=     600 IOpCl=  0 I1Cent=           0 NGrid=           0
         NMat0=    1 NMatS0=  47586 NMatT0=    0 NMatD0=    1 NMtDS0=    0 NMtDT0=    0
 Symmetry not used in FoFCou.
 Integral accuracy reduced to 1.0D-05 until final iterations.

 Cycle   1  Pass 0  IDiag  1:
 E= -287.463886903105    
 DIIS: error= 3.89D-02 at cycle   1 NSaved=   1.
 NSaved= 1 IEnMin= 1 EnMin= -287.463886903105     IErMin= 1 ErrMin= 3.89D-02
 ErrMax= 3.89D-02  0.00D+00 EMaxC= 1.00D-01 BMatC= 3.70D-01 BMatP= 3.70D-01
 IDIUse=3 WtCom= 6.11D-01 WtEn= 3.89D-01
 Coeff-Com:  0.100D+01
 Coeff-En:   0.100D+01
 Coeff:      0.100D+01
 Gap=     0.341 Goal=   None    Shift=    0.000
 GapD=    0.341 DampG=1.000 DampE=0.500 DampFc=0.5000 IDamp=-1.
 Damping current iteration by 5.00D-01
 RMSDP=1.87D-03 MaxDP=6.86D-02              OVMax= 1.35D-01

 Cycle   2  Pass 0  IDiag  1:
 E= -287.502238170386     Delta-E=       -0.038351267281 Rises=F Damp=T
 DIIS: error= 1.85D-02 at cycle   2 NSaved=   2.
 NSaved= 2 IEnMin= 2 EnMin= -287.502238170386     IErMin= 2 ErrMin= 1.85D-02
 ErrMax= 1.85D-02  0.00D+00 EMaxC= 1.00D-01 BMatC= 8.08D-02 BMatP= 3.70D-01
 IDIUse=3 WtCom= 8.15D-01 WtEn= 1.85D-01
 Coeff-Com: -0.674D+00 0.167D+01
 Coeff-En:   0.000D+00 0.100D+01
 Coeff:     -0.549D+00 0.155D+01
 Gap=     0.364 Goal=   None    Shift=    0.000
 RMSDP=8.77D-04 MaxDP=2.88D-02 DE=-3.84D-02 OVMax= 1.08D-01

 Cycle   3  Pass 0  IDiag  1:
 E= -287.523845066578     Delta-E=       -0.021606896192 Rises=F Damp=F
 DIIS: error= 8.93D-03 at cycle   3 NSaved=   3.
 NSaved= 3 IEnMin= 3 EnMin= -287.523845066578     IErMin= 3 ErrMin= 8.93D-03
 ErrMax= 8.93D-03  0.00D+00 EMaxC= 1.00D-01 BMatC= 1.91D-02 BMatP= 8.08D-02
 IDIUse=3 WtCom= 9.11D-01 WtEn= 8.93D-02
 Coeff-Com: -0.389D+00 0.832D+00 0.558D+00
 Coeff-En:   0.000D+00 0.000D+00 0.100D+01
 Coeff:     -0.354D+00 0.757D+00 0.597D+00
 Gap=     0.311 Goal=   None    Shift=    0.000
 RMSDP=3.21D-04 MaxDP=8.81D-03 DE=-2.16D-02 OVMax= 6.36D-02

 Cycle   4  Pass 0  IDiag  1:
 E= -287.541615136249     Delta-E=       -0.017770069671 Rises=F Damp=F
 DIIS: error= 2.91D-03 at cycle   4 NSaved=   4.
 NSaved= 4 IEnMin= 4 EnMin= -287.541615136249     IErMin= 4 ErrMin= 2.91D-03
 ErrMax= 2.91D-03  0.00D+00 EMaxC= 1.00D-01 BMatC= 9.76D-04 BMatP= 1.91D-02
 IDIUse=3 WtCom= 9.71D-01 WtEn= 2.91D-02
 Coeff-Com: -0.182D+00 0.387D+00 0.325D+00 0.469D+00
 Coeff-En:   0.000D+00 0.000D+00 0.000D+00 0.100D+01
 Coeff:     -0.176D+00 0.376D+00 0.316D+00 0.485D+00
 Gap=     0.302 Goal=   None    Shift=    0.000
 RMSDP=7.01D-05 MaxDP=2.41D-03 DE=-1.78D-02 OVMax= 1.04D-02

 Cycle   5  Pass 0  IDiag  1:
 E= -287.542540875316     Delta-E=       -0.000925739067 Rises=F Damp=F
 DIIS: error= 2.74D-04 at cycle   5 NSaved=   5.
 NSaved= 5 IEnMin= 5 EnMin= -287.542540875316     IErMin= 5 ErrMin= 2.74D-04
 ErrMax= 2.74D-04  0.00D+00 EMaxC= 1.00D-01 BMatC= 8.25D-06 BMatP= 9.76D-04
 IDIUse=3 WtCom= 9.97D-01 WtEn= 2.74D-03
 Coeff-Com:  0.710D-02-0.159D-01-0.832D-02 0.600D-01 0.957D+00
 Coeff-En:   0.000D+00 0.000D+00 0.000D+00 0.000D+00 0.100D+01
 Coeff:      0.708D-02-0.159D-01-0.830D-02 0.598D-01 0.957D+00
 Gap=     0.302 Goal=   None    Shift=    0.000
 RMSDP=1.67D-05 MaxDP=3.30D-04 DE=-9.26D-04 OVMax= 2.56D-03

 Cycle   6  Pass 0  IDiag  1:
 E= -287.542551306414     Delta-E=       -0.000010431098 Rises=F Damp=F
 DIIS: error= 1.74D-04 at cycle   6 NSaved=   6.
 NSaved= 6 IEnMin= 6 EnMin= -287.542551306414     IErMin= 6 ErrMin= 1.74D-04
 ErrMax= 1.74D-04  0.00D+00 EMaxC= 1.00D-01 BMatC= 2.96D-06 BMatP= 8.25D-06
 IDIUse=3 WtCom= 9.98D-01 WtEn= 1.74D-03
 Coeff-Com:  0.152D-01-0.329D-01-0.241D-01-0.331D-02 0.472D+00 0.573D+00
 Coeff-En:   0.000D+00 0.000D+00 0.000D+00 0.000D+00 0.000D+00 0.100D+01
 Coeff:      0.152D-01-0.329D-01-0.241D-01-0.330D-02 0.471D+00 0.574D+00
 Gap=     0.302 Goal=   None    Shift=    0.000
 RMSDP=4.88D-06 MaxDP=1.16D-04 DE=-1.04D-05 OVMax= 6.43D-04

 Initial convergence to 1.0D-05 achieved.  Increase integral accuracy.
 Cycle   7  Pass 1  IDiag  1:
 E= -287.542581571708     Delta-E=       -0.000030265295 Rises=F Damp=F
 DIIS: error= 5.46D-05 at cycle   1 NSaved=   1.
 NSaved= 1 IEnMin= 1 EnMin= -287.542581571708     IErMin= 1 ErrMin= 5.46D-05
 ErrMax= 5.46D-05  0.00D+00 EMaxC= 1.00D-01 BMatC= 3.66D-07 BMatP= 3.66D-07
 IDIUse=1 WtCom= 1.00D+00 WtEn= 0.00D+00
 Coeff-Com:  0.100D+01
 Coeff:      0.100D+01
 Gap=     0.302 Goal=   None    Shift=    0.000
 RMSDP=4.88D-06 MaxDP=1.16D-04 DE=-3.03D-05 OVMax= 2.23D-04

 Cycle   8  Pass 1  IDiag  1:
 E= -287.542581843434     Delta-E=       -0.000000271726 Rises=F Damp=F
 DIIS: error= 2.67D-05 at cycle   2 NSaved=   2.
 NSaved= 2 IEnMin= 2 EnMin= -287.542581843434     IErMin= 2 ErrMin= 2.67D-05
 ErrMax= 2.67D-05  0.00D+00 EMaxC= 1.00D-01 BMatC= 1.63D-07 BMatP= 3.66D-07
 IDIUse=1 WtCom= 1.00D+00 WtEn= 0.00D+00
 Coeff-Com:  0.366D+00 0.634D+00
 Coeff:      0.366D+00 0.634D+00
 Gap=     0.302 Goal=   None    Shift=    0.000
 RMSDP=1.26D-06 MaxDP=4.65D-05 DE=-2.72D-07 OVMax= 1.60D-04

 Cycle   9  Pass 1  IDiag  1:
 E= -287.542581968099     Delta-E=       -0.000000124665 Rises=F Damp=F
 DIIS: error= 9.31D-06 at cycle   3 NSaved=   3.
 NSaved= 3 IEnMin= 3 EnMin= -287.542581968099     IErMin= 3 ErrMin= 9.31D-06
 ErrMax= 9.31D-06  0.00D+00 EMaxC= 1.00D-01 BMatC= 3.21D-08 BMatP= 1.63D-07
 IDIUse=1 WtCom= 1.00D+00 WtEn= 0.00D+00
 Coeff-Com: -0.602D-01 0.283D+00 0.777D+00
 Coeff:     -0.602D-01 0.283D+00 0.777D+00
 Gap=     0.302 Goal=   None    Shift=    0.000
 RMSDP=6.90D-07 MaxDP=1.97D-05 DE=-1.25D-07 OVMax= 5.54D-05

 Cycle  10  Pass 1  IDiag  1:
 E= -287.542581997734     Delta-E=       -0.000000029635 Rises=F Damp=F
 DIIS: error= 1.78D-06 at cycle   4 NSaved=   4.
 NSaved= 4 IEnMin= 4 EnMin= -287.542581997734     IErMin= 4 ErrMin= 1.78D-06
 ErrMax= 1.78D-06  0.00D+00 EMaxC= 1.00D-01 BMatC= 3.25D-10 BMatP= 3.21D-08
 IDIUse=1 WtCom= 1.00D+00 WtEn= 0.00D+00
 Coeff-Com: -0.638D-02-0.199D-01-0.773D-01 0.110D+01
 Coeff:     -0.638D-02-0.199D-01-0.773D-01 0.110D+01
 Gap=     0.302 Goal=   None    Shift=    0.000
 RMSDP=1.64D-07 MaxDP=3.90D-06 DE=-2.96D-08 OVMax= 2.59D-05

 Cycle  11  Pass 1  IDiag  1:
 E= -287.542581998889     Delta-E=       -0.000000001155 Rises=F Damp=F
 DIIS: error= 6.57D-07 at cycle   5 NSaved=   5.
 NSaved= 5 IEnMin= 5 EnMin= -287.542581998889     IErMin= 5 ErrMin= 6.57D-07
 ErrMax= 6.57D-07  0.00D+00 EMaxC= 1.00D-01 BMatC= 6.43D-11 BMatP= 3.25D-10
 IDIUse=1 WtCom= 1.00D+00 WtEn= 0.00D+00
 Coeff-Com:  0.580D-02-0.364D-01-0.118D+00 0.266D+00 0.882D+00
 Coeff:      0.580D-02-0.364D-01-0.118D+00 0.266D+00 0.882D+00
 Gap=     0.302 Goal=   None    Shift=    0.000
 RMSDP=5.49D-08 MaxDP=1.41D-06 DE=-1.16D-09 OVMax= 1.12D-05

 Cycle  12  Pass 1  IDiag  1:
 E= -287.542581999041     Delta-E=       -0.000000000152 Rises=F Damp=F
 DIIS: error= 3.46D-07 at cycle   6 NSaved=   6.
 NSaved= 6 IEnMin= 6 EnMin= -287.542581999041     IErMin= 6 ErrMin= 3.46D-07
 ErrMax= 3.46D-07  0.00D+00 EMaxC= 1.00D-01 BMatC= 1.58D-11 BMatP= 6.43D-11
 IDIUse=1 WtCom= 1.00D+00 WtEn= 0.00D+00
 Coeff-Com:  0.352D-02-0.157D-01-0.508D-01 0.186D-01 0.417D+00 0.627D+00
 Coeff:      0.352D-02-0.157D-01-0.508D-01 0.186D-01 0.417D+00 0.627D+00
 Gap=     0.302 Goal=   None    Shift=    0.000
 RMSDP=1.38D-08 MaxDP=3.39D-07 DE=-1.52D-10 OVMax= 2.48D-06

 Cycle  13  Pass 1  IDiag  1:
 E= -287.542581999046     Delta-E=       -0.000000000006 Rises=F Damp=F
 DIIS: error= 9.75D-08 at cycle   7 NSaved=   7.
 NSaved= 7 IEnMin= 7 EnMin= -287.542581999046     IErMin= 7 ErrMin= 9.75D-08
 ErrMax= 9.75D-08  0.00D+00 EMaxC= 1.00D-01 BMatC= 1.15D-12 BMatP= 1.58D-11
 IDIUse=1 WtCom= 1.00D+00 WtEn= 0.00D+00
 Coeff-Com:  0.220D-03 0.640D-03 0.181D-02-0.341D-01 0.603D-02 0.198D+00
 Coeff-Com:  0.827D+00
 Coeff:      0.220D-03 0.640D-03 0.181D-02-0.341D-01 0.603D-02 0.198D+00
 Coeff:      0.827D+00
 Gap=     0.302 Goal=   None    Shift=    0.000
 RMSDP=5.54D-09 MaxDP=1.22D-07 DE=-5.68D-12 OVMax= 9.55D-07

 SCF Done:  E(RCAM-B3LYP) =  -287.542581999     A.U. after   13 cycles
            NFock= 13  Conv=0.55D-08     -V/T= 2.0069
 KE= 2.855714280688D+02 PE=-1.208897703831D+03 EE= 3.650819662171D+02
 Leave Link  502 at Wed Jul 29 17:34:42 2015, MaxMem= 3221225472 cpu:     271.6
 (Enter /cm/shared/apps/gaussian/gdvH23dev/gdv/l801.exe)
 DoSCS=F DFT=T ScalE2(SS,OS)=  1.000000  1.000000
 ExpMin= 1.03D-01 ExpMax= 1.14D+04 ExpMxC= 3.89D+02 IAcc=3 IRadAn=         5 AccDes= 0.00D+00
 HarFok:  IExCor=  205 AccDes= 0.00D+00 IRadAn=         5 IDoV=-2 UseB2=F ITyADJ=14
 ICtDFT= 12500011 ScaDFX=  1.000000  1.000000  1.000000  1.000000
 Largest valence mixing into a core orbital is  6.82D-05
 Largest core mixing into a valence orbital is  1.34D-05
 Range of M.O.s used for correlation:     8   308
 NBasis=   308 NAE=    25 NBE=    25 NFC=     7 NFV=     0
 NROrb=    301 NOA=    18 NOB=    18 NVA=   283 NVB=   283

 **** Warning!!: The largest alpha MO coefficient is  0.34602598D+02

 Leave Link  801 at Wed Jul 29 17:34:43 2015, MaxMem= 3221225472 cpu:       1.0
 (Enter /cm/shared/apps/gaussian/gdvH23dev/gdv/l914.exe)
 RHF ground state
 Energy threshold for converged states is -1.000000D+20 au    -2.721D+21 ev.
 Energy threshold for initial guesses  is -1.000000D+20 au    -2.721D+21 ev.
 MDV=  3221225472 DFT=T DoStab=F Mixed=T DoRPA=T DoScal=F NonHer=T
 Would need an additional          3925700000 words for in-memory AO integral storage.
 Making orbital integer symmetry assigments:
    40 initial guesses have been made.
 Convergence on wavefunction:    0.001000000000000
 Davidson Disk Diagonalization:  ConvIn= 1.00D-03 SkipCon=T Conv= 1.00D-03.
 Max sub-space:   200 roots to seek:    40 dimension of matrix:        10188
 Iteration     1 Dimension    40 NMult     0 NNew     40
 CISAX will form    40 AO SS matrices at one time.
 NMat=    40 NSing=    40 JSym2X= 0.
 FoFJK:  IHMeth= 1 ICntrl=       0 DoSepK=T KAlg= 0 I1Cent=   0 FoldK=F
 IRaf=         1 NMat=  80 IRICut=       1 DoRegI=T DoRafI=F ISym2E= 0.
 FoFCou: FMM=F IPFlag=           0 FMFlag=      100000 FMFlg1=           0
         NFxFlg=           0 DoJE=F BraDBF=F KetDBF=F FulRan=T
         wScrn=  0.000000 ICntrl=     500 IOpCl=  0 I1Cent=           0 NGrid=           0
         NMat0=   40 NMatS0=     40 NMatT0=    0 NMatD0=   40 NMtDS0=    0 NMtDT0=    0
 Symmetry not used in FoFCou.
 New state      2 was old state      3
 New state      3 was old state      2
 New state      4 was old state      5
 New state      5 was old state      7
 New state      7 was old state      8
 New state      8 was old state      9
 New state      9 was old state      4
 Excitation Energies [eV] at current iteration:
 Root      1 :     5.172505989094404
 Root      2 :     6.058287485530741
 Root      3 :     6.552038436000244
 Root      4 :     6.891113043563172
 Root      5 :     7.043638245801661
 Root      6 :     7.449856385810827
 Root      7 :     7.654500615676814
 Root      8 :     7.859938771956357
 Root      9 :     7.965106228996585
 Root     10 :     8.082346560906513
 Root     11 :     8.166908560967098
 Root     12 :     8.218180410172803
 Root     13 :     8.340550400957056
 Root     14 :     8.422326557690864
 Root     15 :     8.619731887511747
 Root     16 :     8.869149533555372
 Root     17 :     8.990819061520414
 Root     18 :     9.103617344545482
 Root     19 :     9.120215749150482
 Root     20 :     9.156875936414110
 Root     21 :     9.285273127689992
 Root     22 :     9.394975867049515
 Root     23 :     9.560844783623514
 Root     24 :    10.069806977635220
 Root     25 :    10.112102962090920
 Root     26 :    10.179262444329020
 Root     27 :    10.265920592009620
 Root     28 :    10.281082952761500
 Root     29 :    10.433244847793870
 Root     30 :    10.450829109547080
 Root     31 :    10.456758025585750
 Root     32 :    10.773804727958990
 Root     33 :    10.836751415969720
 Root     34 :    10.845710283906260
 Root     35 :    11.188591776829900
 Root     36 :    11.234209782200530
 Root     37 :    11.283615567000650
 Root     38 :    11.456009351277480
 Root     39 :    11.491671784147570
 Root     40 :    11.658580200839190
 Iteration     2 Dimension    60 NMult    40 NNew     20
 CISAX will form    20 AO SS matrices at one time.
 NMat=    20 NSing=    20 JSym2X= 0.
 Root      1 not converged, maximum delta is    0.061419273898906
 Root      2 not converged, maximum delta is    0.431320822464510
 Root      3 not converged, maximum delta is    0.373808762536659
 Root      4 not converged, maximum delta is    0.182477273264886
 Root      5 not converged, maximum delta is    0.375124842295341
 New state      6 was old state      8
 Root      6 not converged, maximum delta is    0.426671756234867
 New state      7 was old state      6
 Root      7 not converged, maximum delta is    0.333472479033803
 New state      8 was old state      7
 Root      8 not converged, maximum delta is    0.052725571285853
 Root      9 not converged, maximum delta is    0.320442864260320
 Root     10 not converged, maximum delta is    0.080097974470635
 Excitation Energies [eV] at current iteration:
 Root      1 :     4.988898437075070   Change is   -0.183607552019333
 Root      2 :     5.739044309661578   Change is   -0.319243175869163
 Root      3 :     6.108443247768078   Change is   -0.443595188232166
 Root      4 :     6.778503700440118   Change is   -0.112609343123053
 Root      5 :     6.827152695227596   Change is   -0.216485550574065
 Root      6 :     6.929804697446151   Change is   -0.930134074510205
 Root      7 :     7.061065253594283   Change is   -0.388791132216545
 Root      8 :     7.560593443528519   Change is   -0.093907172148295
 Root      9 :     7.806521333257638   Change is   -0.158584895738947
 Root     10 :     8.006925794187641   Change is   -0.075420766718872
 Iteration     3 Dimension    80 NMult    60 NNew     20
 CISAX will form    20 AO SS matrices at one time.
 NMat=    20 NSing=    20 JSym2X= 0.
 Root      1 not converged, maximum delta is    0.004340723208797
 Root      2 not converged, maximum delta is    0.017687123088287
 Root      3 not converged, maximum delta is    0.013003693939266
 Root      4 not converged, maximum delta is    0.075434865735366
 Root      5 not converged, maximum delta is    0.085743200253734
 Root      6 not converged, maximum delta is    0.082389543473698
 Root      7 not converged, maximum delta is    0.028371921710363
 Root      8 not converged, maximum delta is    0.005889144331130
 Root      9 not converged, maximum delta is    0.014944206135136
 Root     10 not converged, maximum delta is    0.025591651836766
 Excitation Energies [eV] at current iteration:
 Root      1 :     4.982794322781110   Change is   -0.006104114293961
 Root      2 :     5.719819820700647   Change is   -0.019224488960931
 Root      3 :     6.101710938791430   Change is   -0.006732308976648
 Root      4 :     6.768738665265309   Change is   -0.009765035174809
 Root      5 :     6.803755939175829   Change is   -0.023396756051767
 Root      6 :     6.881287343914833   Change is   -0.048517353531319
 Root      7 :     7.049029205969847   Change is   -0.012036047624436
 Root      8 :     7.557970423652380   Change is   -0.002623019876139
 Root      9 :     7.801576181052231   Change is   -0.004945152205407
 Root     10 :     8.004334231346503   Change is   -0.002591562841138
 Iteration     4 Dimension   100 NMult    80 NNew     20
 CISAX will form    20 AO SS matrices at one time.
 NMat=    20 NSing=    20 JSym2X= 0.
 Root      1 has converged.
 Root      2 not converged, maximum delta is    0.001619067268230
 Root      3 has converged.
 Root      4 not converged, maximum delta is    0.003767615769187
 Root      5 not converged, maximum delta is    0.006278170682884
 Root      6 not converged, maximum delta is    0.006678625106542
 Root      7 not converged, maximum delta is    0.001441747855121
 Root      8 not converged, maximum delta is    0.001004390610136
 Root      9 not converged, maximum delta is    0.001976264147689
 Root     10 not converged, maximum delta is    0.025352043539941
 Excitation Energies [eV] at current iteration:
 Root      1 :     4.982607851734278   Change is   -0.000186471046831
 Root      2 :     5.718585146048510   Change is   -0.001234674652137
 Root      3 :     6.101325693780739   Change is   -0.000385245010691
 Root      4 :     6.768153712399990   Change is   -0.000584952865320
 Root      5 :     6.802512425976595   Change is   -0.001243513199234
 Root      6 :     6.878672612987510   Change is   -0.002614730927323
 Root      7 :     7.048515398664658   Change is   -0.000513807305188
 Root      8 :     7.557833655982318   Change is   -0.000136767670063
 Root      9 :     7.801275079936760   Change is   -0.000301101115471
 Root     10 :     8.003896814963024   Change is   -0.000437416383479
 Iteration     5 Dimension   116 NMult   100 NNew     16
 CISAX will form    16 AO SS matrices at one time.
 NMat=    16 NSing=    16 JSym2X= 0.
 Root      1 has converged.
 Root      2 has converged.
 Root      3 has converged.
 Root      4 has converged.
 Root      5 has converged.
 Root      6 has converged.
 Root      7 has converged.
 Root      8 has converged.
 Root      9 has converged.
 Root     10 not converged, maximum delta is    0.014999041286807
 Excitation Energies [eV] at current iteration:
 Root      1 :     4.982605254521755   Change is   -0.000002597212523
 Root      2 :     5.718538395839890   Change is   -0.000046750208620
 Root      3 :     6.101316595705059   Change is   -0.000009098075680
 Root      4 :     6.768130459438643   Change is   -0.000023252961347
 Root      5 :     6.802469206106083   Change is   -0.000043219870513
 Root      6 :     6.878561907256352   Change is   -0.000110705731157
 Root      7 :     7.048497248303383   Change is   -0.000018150361276
 Root      8 :     7.557825587174849   Change is   -0.000008068807469
 Root      9 :     7.801260515143237   Change is   -0.000014564793522
 Root     10 :     8.003779350196984   Change is   -0.000117464766041
 Iteration     6 Dimension   118 NMult   116 NNew      2
 CISAX will form     2 AO SS matrices at one time.
 NMat=     2 NSing=     2 JSym2X= 0.
 Root      1 has converged.
 Root      2 has converged.
 Root      3 has converged.
 Root      4 has converged.
 Root      5 has converged.
 Root      6 has converged.
 Root      7 has converged.
 Root      8 has converged.
 Root      9 has converged.
 Root     10 not converged, maximum delta is    0.002847162504459
 Excitation Energies [eV] at current iteration:
 Root      1 :     4.982605241036608   Change is   -0.000000013485147
 Root      2 :     5.718538391616564   Change is   -0.000000004223326
 Root      3 :     6.101316580054509   Change is   -0.000000015650550
 Root      4 :     6.768130443044159   Change is   -0.000000016394484
 Root      5 :     6.802469191331552   Change is   -0.000000014774531
 Root      6 :     6.878561885245721   Change is   -0.000000022010632
 Root      7 :     7.048497241654746   Change is   -0.000000006648636
 Root      8 :     7.557825569747346   Change is   -0.000000017427504
 Root      9 :     7.801260497305541   Change is   -0.000000017837697
 Root     10 :     8.003766113785984   Change is   -0.000013236411001
 Iteration     7 Dimension   120 NMult   118 NNew      2
 CISAX will form     2 AO SS matrices at one time.
 NMat=     2 NSing=     2 JSym2X= 0.
 Root      1 has converged.
 Root      2 has converged.
 Root      3 has converged.
 Root      4 has converged.
 Root      5 has converged.
 Root      6 has converged.
 Root      7 has converged.
 Root      8 has converged.
 Root      9 has converged.
 Root     10 has converged.
 Excitation Energies [eV] at current iteration:
 Root      1 :     4.982605233984549   Change is   -0.000000007052059
 Root      2 :     5.718538385644717   Change is   -0.000000005971847
 Root      3 :     6.101316564700314   Change is   -0.000000015354196
 Root      4 :     6.768130430775336   Change is   -0.000000012268822
 Root      5 :     6.802469169408373   Change is   -0.000000021923179
 Root      6 :     6.878561856982591   Change is   -0.000000028263129
 Root      7 :     7.048497237247648   Change is   -0.000000004407099
 Root      8 :     7.557825562504116   Change is   -0.000000007243228
 Root      9 :     7.801260481770883   Change is   -0.000000015534658
 Root     10 :     8.003765061512500   Change is   -0.000001052273483
 Convergence achieved on expansion vectors.
 ***********************************************************************
 Excited states from <AA,BB:AA,BB> singles matrix:
 ***********************************************************************
 
 EET: Writing output files:
 Dat - CisPATr, CisPBTr - CisAttA, CisAttB, CisDetA, CisDetB.
 Attachment / Detachment numbers:
       state        Att    Det    Diff         Att    Det    Diff        Diff
         1  alpha   0.53   0.53   0.00  beta   0.53   0.53   0.00  tot   0.00
         2  alpha   0.48   0.48   0.00  beta   0.48   0.48   0.00  tot   0.00
         3  alpha   0.49   0.49   0.00  beta   0.49   0.49   0.00  tot   0.00
         4  alpha   0.48   0.48   0.00  beta   0.48   0.48   0.00  tot   0.00
         5  alpha   0.46   0.46   0.00  beta   0.46   0.46   0.00  tot   0.00
         6  alpha   0.44   0.44   0.00  beta   0.44   0.44   0.00  tot   0.00
         7  alpha   0.48   0.48   0.00  beta   0.48   0.48   0.00  tot   0.00
         8  alpha   0.50   0.50   0.00  beta   0.50   0.50   0.00  tot   0.00
         9  alpha   0.50   0.50   0.00  beta   0.50   0.50   0.00  tot   0.00
        10  alpha   0.50   0.50   0.00  beta   0.50   0.50   0.00  tot   0.00
 1PDM for each excited state written to RWF  633
 Ground to excited state transition densities written to RWF  633
 Ground to excited state transition electric dipole moments (Au):
       state          X           Y           Z        Dip. S.      Osc.
         1         0.3232     -0.2682     -0.3196      0.2786      0.0340
         2        -0.1160      0.6608     -0.5902      0.7984      0.1119
         3         0.1076     -0.0148      0.1471      0.0335      0.0050
         4        -0.4281      0.7089     -0.0707      0.6908      0.1145
         5         0.5287     -0.0797     -1.0276      1.3418      0.2236
         6         0.2799     -1.1992      1.1689      2.8827      0.4858
         7        -0.4368      0.4997      0.1785      0.4724      0.0816
         8         0.0501     -0.0333     -0.0280      0.0044      0.0008
         9         0.3387      0.0299      0.0875      0.1232      0.0236
        10         0.0720     -0.0736     -0.0307      0.0116      0.0023
 Ground to excited state transition velocity dipole moments (Au):
       state          X           Y           Z        Dip. S.      Osc.
         1        -0.0595      0.0506      0.0605      0.0098      0.0355
         2         0.0152     -0.1470      0.1193      0.0361      0.1145
         3        -0.0471     -0.0108     -0.0493      0.0048      0.0142
         4         0.1023     -0.1785      0.0151      0.0426      0.1141
         5        -0.1312      0.0180      0.2556      0.0828      0.2209
         6        -0.0748      0.3015     -0.3002      0.1866      0.4921
         7         0.1163     -0.1303     -0.0454      0.0326      0.0838
         8        -0.0138      0.0088      0.0070      0.0003      0.0008
         9        -0.1066     -0.0146     -0.0316      0.0126      0.0293
        10        -0.0223      0.0199      0.0061      0.0009      0.0021
 Ground to excited state transition magnetic dipole moments (Au):
       state          X           Y           Z
         1        -0.5103     -0.3058     -0.3184
         2         0.5132      0.5872      0.6826
         3        -0.4864     -0.0640      0.4970
         4         0.5860      0.7069      0.8494
         5         0.0064      0.4486      0.1100
         6        -1.7739     -1.2569     -0.8871
         7         0.3355      0.2325      0.1145
         8        -0.0106      0.3315     -0.2768
         9         0.0711     -0.4019      0.2978
        10        -0.0178     -0.0078     -0.0210
 Ground to excited state transition velocity quadrupole moments (Au):
       state          XX          YY          ZZ          XY          XZ          YZ
         1         0.4630      0.2098      0.3731     -0.3024     -0.4274      0.2635
         2        -0.0280     -1.0069      0.5585      0.5760     -0.4447      0.1827
         3         0.4376     -0.3679      0.0192     -0.2546      0.2738     -0.1652
         4        -0.7304     -0.9471      0.1317      0.7430      0.3865     -0.3837
         5         1.0464     -0.1114      1.5982     -0.3516     -1.3676      0.6462
         6         0.5583      1.2512     -1.4957     -1.4536      1.1740      0.0436
         7        -0.9942     -0.4754     -0.2952      0.8239      0.4955     -0.4257
         8        -0.2507      0.2647      0.1669     -0.0701      0.0369      0.2473
         9         0.7974      0.0272     -0.2286     -0.1544     -0.2415     -0.1197
        10         0.2326      0.0568      0.0024     -0.1094     -0.1402      0.0185
 <0|del|b> * <b|rxdel|0> + <0|del|b> * <b|delr+rdel|0>
 Rotatory Strengths (R) in cgs (10**-40 erg-esu-cm/Gauss)
       state          XX          YY          ZZ    R(velocity)    E-M Angle
         1       -60.5827     26.4677     17.1914     -5.6412       93.77
         2        -2.5053     39.1713    -26.7981      3.2893       89.15
         3       -13.1032    -10.0376     20.2977     -0.9477       91.07
         4       -47.0876     31.7014   -136.5237    -50.6366      101.95
         5       -41.2111     45.7567     95.3764     33.3073       74.59
         6       -42.0742    -56.9536    155.0981     18.6901       88.87
         7       -11.4553     29.6849     -8.6415      3.1961       87.37
         8         0.2055     -6.0164      8.6773      0.9554       81.60
         9        -2.7136    -11.2685    -13.5274     -9.1698      101.35
        10         2.2063      0.6352     -2.5694      0.0907       82.56
 1/2[<0|r|b>*<b|rxdel|0> + (<0|rxdel|b>*<b|r|0>)*]
 Rotatory Strengths (R) in cgs (10**-40 erg-esu-cm/Gauss)
       state          XX          YY          ZZ     R(length)
         1       116.6345    -58.0155    -71.9632     -4.4481
         2        42.0875   -274.3742    284.9015     17.5383
         3        37.0221     -0.6697    -51.7193     -5.1223
         4       177.4221   -354.3478     42.4936    -44.8107
         5        -2.3981     25.2993     79.9217     34.2743
         6       351.0904  -1065.8721    733.3089      6.1758
         7       103.6439    -82.1807    -14.4550      2.3361
         8         0.3750      7.7943     -5.4769      0.8975
         9       -17.0371      8.4956    -18.4251     -8.9889
        10         0.9083     -0.4060     -0.4564      0.0153
  1/2[<0|del|b>*<b|r|0> + (<0|r|b>*<b|del|0>)*] (Au)
       state          X           Y           Z        Dip. S.   Osc.(frdel)
         1        -0.0192     -0.0136     -0.0193      0.0521      0.0348
         2        -0.0018     -0.0971     -0.0704      0.1693      0.1129
         3        -0.0051      0.0002     -0.0073      0.0122      0.0081
         4        -0.0438     -0.1265     -0.0011      0.1714      0.1143
         5        -0.0694     -0.0014     -0.2626      0.3334      0.2223
         6        -0.0209     -0.3615     -0.3509      0.7334      0.4889
         7        -0.0508     -0.0651     -0.0081      0.1240      0.0827
         8        -0.0007     -0.0003     -0.0002      0.0012      0.0008
         9        -0.0361     -0.0004     -0.0028      0.0393      0.0262
        10        -0.0016     -0.0015     -0.0002      0.0033      0.0022

 Excitation energies and oscillator strengths:
 
 Excited state symmetry could not be determined.
 Excited State   1:      Singlet-?Sym    4.9826 eV  248.83 nm  f=0.0340  <S**2>=0.000
      24 -> 27        -0.27166
      25 -> 26         0.64842
 This state for optimization and/or second-order correction.
 Total Energy, E(TD-HF/TD-KS) =  -287.359474626    
 Copying the excited state density for this state as the 1-particle RhoCI density.
 
 Excited state symmetry could not be determined.
 Excited State   2:      Singlet-?Sym    5.7185 eV  216.81 nm  f=0.1119  <S**2>=0.000
      24 -> 26         0.27369
      25 -> 27         0.63336
      25 -> 28         0.11283
 
 Excited state symmetry could not be determined.
 Excited State   3:      Singlet-?Sym    6.1013 eV  203.21 nm  f=0.0050  <S**2>=0.000
      23 -> 28         0.11353
      24 -> 26        -0.17405
      25 -> 28         0.65720
      25 -> 29         0.10017
 
 Excited state symmetry could not be determined.
 Excited State   4:      Singlet-?Sym    6.7681 eV  183.19 nm  f=0.1145  <S**2>=0.000
      24 -> 26        -0.23050
      24 -> 27        -0.30755
      25 -> 26        -0.13041
      25 -> 28        -0.14354
      25 -> 29         0.50402
      25 -> 30        -0.14879
 
 Excited state symmetry could not be determined.
 Excited State   5:      Singlet-?Sym    6.8025 eV  182.26 nm  f=0.2236  <S**2>=0.000
      23 -> 26         0.14146
      24 -> 26        -0.21306
      24 -> 27         0.48845
      25 -> 26         0.21514
      25 -> 27         0.10439
      25 -> 29         0.28932
      25 -> 30         0.17618
 
 Excited state symmetry could not be determined.
 Excited State   6:      Singlet-?Sym    6.8786 eV  180.25 nm  f=0.4858  <S**2>=0.000
      24 -> 26         0.52839
      25 -> 27        -0.25705
      25 -> 29         0.35433
 
 Excited state symmetry could not be determined.
 Excited State   7:      Singlet-?Sym    7.0485 eV  175.90 nm  f=0.0816  <S**2>=0.000
      24 -> 27        -0.21771
      24 -> 28         0.17622
      25 -> 26        -0.10900
      25 -> 30         0.59971
      25 -> 32         0.11257
 
 Excited state symmetry could not be determined.
 Excited State   8:      Singlet-?Sym    7.5578 eV  164.05 nm  f=0.0008  <S**2>=0.000
      24 -> 28         0.49111
      24 -> 29        -0.44849
      25 -> 30        -0.16544
 
 Excited state symmetry could not be determined.
 Excited State   9:      Singlet-?Sym    7.8013 eV  158.93 nm  f=0.0236  <S**2>=0.000
      23 -> 29         0.12623
      24 -> 28        -0.13050
      24 -> 29        -0.10671
      24 -> 30        -0.23032
      25 -> 30         0.11191
      25 -> 31         0.60061
 
 Excited state symmetry could not be determined.
 Excited State  10:      Singlet-?Sym    8.0038 eV  154.91 nm  f=0.0023  <S**2>=0.000
      22 -> 26        -0.18419
      23 -> 26        -0.17399
      24 -> 27         0.10373
      24 -> 28         0.38025
      24 -> 29         0.45454
      25 -> 31         0.17863
      25 -> 32         0.16335
 SavETr:  write IOETrn=   770 NScale= 10 NData=  16 NLR=1 NState=   10 LETran=     190.
 Leave Link  914 at Wed Jul 29 17:39:12 2015, MaxMem= 3221225472 cpu:    4084.9
 (Enter /cm/shared/apps/gaussian/gdvH23dev/gdv/l601.exe)
 Copying SCF densities to generalized density rwf, IOpCl= 0 IROHF=0.

 **********************************************************************

            Population analysis using the SCF density.

 **********************************************************************

 Alpha  occ. eigenvalues --  -14.39299 -10.29232 -10.24925 -10.24658 -10.24398
 Alpha  occ. eigenvalues --  -10.24098 -10.23884  -0.99898  -0.91753  -0.82309
 Alpha  occ. eigenvalues --   -0.80276  -0.68154  -0.67375  -0.59464  -0.57310
 Alpha  occ. eigenvalues --   -0.54300  -0.49866  -0.49593  -0.47771  -0.45284
 Alpha  occ. eigenvalues --   -0.41510  -0.40499  -0.37765  -0.30571  -0.26393
 Alpha virt. eigenvalues --    0.03836   0.05174   0.07496   0.09053   0.10282
 Alpha virt. eigenvalues --    0.12776   0.13472   0.16550   0.17328   0.21166
 Alpha virt. eigenvalues --    0.25143   0.27664   0.28784   0.30284   0.31945
 Alpha virt. eigenvalues --    0.33798   0.36002   0.37133   0.37299   0.37640
 Alpha virt. eigenvalues --    0.39140   0.40661   0.41071   0.43953   0.45071
 Alpha virt. eigenvalues --    0.45183   0.45929   0.46917   0.48636   0.49230
 Alpha virt. eigenvalues --    0.49643   0.50900   0.51650   0.52899   0.53113
 Alpha virt. eigenvalues --    0.54102   0.54267   0.56230   0.58725   0.59720
 Alpha virt. eigenvalues --    0.61330   0.61703   0.63446   0.69065   0.69744
 Alpha virt. eigenvalues --    0.72737   0.74375   0.75103   0.76223   0.77137
 Alpha virt. eigenvalues --    0.79605   0.81921   0.82867   0.85888   0.86510
 Alpha virt. eigenvalues --    0.88582   0.91753   0.95020   0.97256   0.97904
 Alpha virt. eigenvalues --    0.99772   1.00402   1.03732   1.06443   1.07210
 Alpha virt. eigenvalues --    1.07944   1.08980   1.10618   1.12236   1.14823
 Alpha virt. eigenvalues --    1.16629   1.18667   1.19770   1.22971   1.24097
 Alpha virt. eigenvalues --    1.26033   1.28641   1.29869   1.31528   1.32624
 Alpha virt. eigenvalues --    1.34438   1.36683   1.38892   1.39319   1.41360
 Alpha virt. eigenvalues --    1.43351   1.43592   1.44219   1.46892   1.49327
 Alpha virt. eigenvalues --    1.51115   1.53078   1.55638   1.56438   1.58521
 Alpha virt. eigenvalues --    1.63333   1.71317   1.72562   1.75073   1.76434
 Alpha virt. eigenvalues --    1.79609   1.84384   1.93524   1.95255   2.03067
 Alpha virt. eigenvalues --    2.05089   2.08277   2.11798   2.13701   2.16282
 Alpha virt. eigenvalues --    2.19774   2.24400   2.25098   2.26892   2.27813
 Alpha virt. eigenvalues --    2.28718   2.34653   2.37597   2.44977   2.46492
 Alpha virt. eigenvalues --    2.50990   2.53367   2.54228   2.56957   2.58914
 Alpha virt. eigenvalues --    2.59587   2.60809   2.64451   2.68955   2.70943
 Alpha virt. eigenvalues --    2.72263   2.73687   2.77040   2.78456   2.78644
 Alpha virt. eigenvalues --    2.79827   2.83261   2.85896   2.86764   2.88656
 Alpha virt. eigenvalues --    2.90751   2.92744   2.97626   2.99729   3.00291
 Alpha virt. eigenvalues --    3.00898   3.02161   3.03645   3.07058   3.07886
 Alpha virt. eigenvalues --    3.09465   3.11128   3.11303   3.12776   3.13211
 Alpha virt. eigenvalues --    3.13580   3.14429   3.15980   3.17983   3.18595
 Alpha virt. eigenvalues --    3.19762   3.21973   3.22660   3.24916   3.26855
 Alpha virt. eigenvalues --    3.31758   3.34269   3.35199   3.37127   3.38298
 Alpha virt. eigenvalues --    3.40222   3.42351   3.43376   3.44370   3.45223
 Alpha virt. eigenvalues --    3.45736   3.46156   3.47737   3.49030   3.50492
 Alpha virt. eigenvalues --    3.56164   3.59362   3.61761   3.64985   3.67360
 Alpha virt. eigenvalues --    3.70161   3.71590   3.74836   3.78672   3.79764
 Alpha virt. eigenvalues --    3.81060   3.81601   3.82704   3.83182   3.83896
 Alpha virt. eigenvalues --    3.86090   3.87659   3.88117   3.88999   3.90292
 Alpha virt. eigenvalues --    3.92139   3.94196   3.95639   4.01505   4.02493
 Alpha virt. eigenvalues --    4.02987   4.06756   4.07849   4.09480   4.12042
 Alpha virt. eigenvalues --    4.13542   4.15785   4.17131   4.17668   4.20091
 Alpha virt. eigenvalues --    4.23439   4.24028   4.28336   4.29831   4.30164
 Alpha virt. eigenvalues --    4.31547   4.33394   4.36022   4.37860   4.38209
 Alpha virt. eigenvalues --    4.41485   4.42196   4.42680   4.45601   4.46588
 Alpha virt. eigenvalues --    4.49354   4.55663   4.59076   4.64561   4.68311
 Alpha virt. eigenvalues --    4.72128   4.75440   4.76975   4.78626   4.82491
 Alpha virt. eigenvalues --    4.83732   4.88663   4.88883   4.94307   4.96718
 Alpha virt. eigenvalues --    5.00519   5.02375   5.06000   5.06731   5.10586
 Alpha virt. eigenvalues --    5.14185   5.16440   5.17120   5.22085   5.25025
 Alpha virt. eigenvalues --    5.40553   5.45983   5.48456   5.55622   5.59195
 Alpha virt. eigenvalues --    5.61673   5.71714   5.75201   5.80821   5.83053
 Alpha virt. eigenvalues --    5.90720   5.97387   6.00851   6.02832   6.15803
 Alpha virt. eigenvalues --    6.17900   6.29433   6.38782   6.57951   6.84444
 Alpha virt. eigenvalues --    6.96224   8.65462  11.98234  12.37980  12.79297
 Alpha virt. eigenvalues --   13.00047  13.55313  15.27832
          Condensed to atoms (all electrons):
              1          2          3          4          5          6
     1  C    5.000813  -0.029020   0.466641   0.500690  -0.063226  -0.031631
     2  C   -0.029020   4.877156  -0.055774  -0.061099   0.504856   0.512109
     3  C    0.466641  -0.055774   4.833375  -0.061904  -0.023857   0.462390
     4  C    0.500690  -0.061099  -0.061904   4.896182   0.507531  -0.029471
     5  C   -0.063226   0.504856  -0.023857   0.507531   4.932433  -0.064623
     6  C   -0.031631   0.512109   0.462390  -0.029471  -0.064623   4.983636
     7  H    0.008206  -0.049490  -0.001708  -0.049279   0.431743   0.007953
     8  H    0.005230  -0.036788  -0.054155  -0.000205   0.005533   0.424248
     9  H   -0.000821   0.429074   0.007493   0.007025  -0.047500  -0.046690
    10  N   -0.061340   0.002143   0.383189   0.000687   0.001755  -0.069013
    11  H    0.002951   0.000807  -0.044182  -0.000743   0.000082  -0.001850
    12  H   -0.005724  -0.000536  -0.041099   0.000285   0.000080   0.003946
    13  H    0.423435  -0.000456  -0.050059  -0.041690   0.006252   0.005284
    14  H   -0.054475   0.006550   0.008570   0.430645  -0.042387  -0.000857
              7          8          9         10         11         12
     1  C    0.008206   0.005230  -0.000821  -0.061340   0.002951  -0.005724
     2  C   -0.049490  -0.036788   0.429074   0.002143   0.000807  -0.000536
     3  C   -0.001708  -0.054155   0.007493   0.383189  -0.044182  -0.041099
     4  C   -0.049279  -0.000205   0.007025   0.000687  -0.000743   0.000285
     5  C    0.431743   0.005533  -0.047500   0.001755   0.000082   0.000080
     6  C    0.007953   0.424248  -0.046690  -0.069013  -0.001850   0.003946
     7  H    0.561055  -0.000276  -0.006869   0.000023  -0.000005  -0.000004
     8  H   -0.000276   0.578067  -0.008290  -0.005407   0.004100  -0.000278
     9  H   -0.006869  -0.008290   0.559804  -0.000234  -0.000057   0.000028
    10  N    0.000023  -0.005407  -0.000234   6.249901   0.398558   0.397772
    11  H   -0.000005   0.004100  -0.000057   0.398558   0.548867  -0.047271
    12  H   -0.000004  -0.000278   0.000028   0.397772  -0.047271   0.543842
    13  H   -0.000338  -0.000331   0.000070  -0.003410  -0.000282   0.002256
    14  H   -0.006733   0.000067  -0.000312  -0.000223   0.000036  -0.000039
             13         14
     1  C    0.423435  -0.054475
     2  C   -0.000456   0.006550
     3  C   -0.050059   0.008570
     4  C   -0.041690   0.430645
     5  C    0.006252  -0.042387
     6  C    0.005284  -0.000857
     7  H   -0.000338  -0.006733
     8  H   -0.000331   0.000067
     9  H    0.000070  -0.000312
    10  N   -0.003410  -0.000223
    11  H   -0.000282   0.000036
    12  H    0.002256  -0.000039
    13  H    0.573074  -0.010639
    14  H   -0.010639   0.566503
 Mulliken charges:
              1
     1  C   -0.161729
     2  C   -0.099532
     3  C    0.171081
     4  C   -0.098655
     5  C   -0.148672
     6  C   -0.155433
     7  H    0.105720
     8  H    0.088483
     9  H    0.107278
    10  N   -0.294403
    11  H    0.138991
    12  H    0.146743
    13  H    0.096834
    14  H    0.103294
 Sum of Mulliken charges =   0.00000
 Mulliken charges with hydrogens summed into heavy atoms:
              1
     1  C   -0.064895
     2  C    0.007745
     3  C    0.171081
     4  C    0.004639
     5  C   -0.042952
     6  C   -0.066950
    10  N   -0.008669
 Sum of Mulliken charges with hydrogens summed into heavy atoms =   0.00000
 Electronic spatial extent (au):  <R**2>=           2139.0827
 Charge=              0.0000 electrons
 Dipole moment (field-independent basis, Debye):
    X=              0.6114    Y=              1.4058    Z=             -0.3253  Tot=              1.5671
 Quadrupole moment (field-independent basis, Debye-Ang):
   XX=            -45.6119   YY=            -32.5549   ZZ=            -40.6481
   XY=             -4.8050   XZ=             -3.1457   YZ=             -1.1402
 Traceless Quadrupole moment (field-independent basis, Debye-Ang):
   XX=             -6.0069   YY=              7.0500   ZZ=             -1.0431
   XY=             -4.8050   XZ=             -3.1457   YZ=             -1.1402
 Octapole moment (field-independent basis, Debye-Ang**2):
  XXX=            283.7873  YYY=           -119.5539  ZZZ=           -161.6298  XYY=             64.4879
  XXY=            -41.1703  XXZ=            -43.9626  XZZ=             80.4658  YZZ=            -56.5313
  YYZ=            -57.9120  XYZ=             -9.0984
 Hexadecapole moment (field-independent basis, Debye-Ang**3):
 XXXX=          -1368.5061 YYYY=           -611.3556 ZZZZ=           -821.4212 XXXY=            379.7300
 XXXZ=            346.2829 YYYX=            293.9973 YYYZ=           -136.5655 ZZZX=            337.6737
 ZZZY=           -140.8996 XXYY=           -279.3172 XXZZ=           -333.4498 YYZZ=           -276.4815
 XXYZ=              3.2251 YYXZ=            105.8314 ZZXY=            128.6253
 N-N= 2.707017275459D+02 E-N=-1.208897711312D+03  KE= 2.855714280688D+02
 Leave Link  601 at Wed Jul 29 17:39:12 2015, MaxMem= 3221225472 cpu:       0.1
 (Enter /cm/shared/apps/gaussian/gdvH23dev/gdv/l9999.exe)

 Test job not archived.
 1\1\GINC-C8000-04\SP\RCAM-B3LYP TD-FC\CC-pVTZ\C6H7N1\DPADULA\29-Jul-20
 15\0\\#p td=nstates=10 cam-b3lyp cc-pVTZ eet=prop IOp(2/12=3) nosymm\\
 triptycene\\0,1\C,0,-1.44979401,0.90100225,0.40844033\C,0,-2.7055892,1
 .08882296,2.88314648\C,0,-2.28340026,1.99746353,0.66070372\C,0,-1.2300
 0991,-0.07042692,1.39489133\C,0,-1.85209309,0.00712344,2.63569294\C,0,
 -2.91514247,2.06925487,1.9182094\H,0,-1.67802913,-0.75173903,3.3935961
 \H,0,-3.57333862,2.90900152,2.13233411\H,0,-3.20600501,1.17457531,3.84
 441953\N,0,-2.53190879,2.96965316,-0.32197619\H,0,-2.90696647,3.833284
 67,0.05269058\H,0,-1.74076502,3.16345869,-0.92475822\H,0,-0.9094711,0.
 69494778,-0.51315433\H,0,-0.54695119,-0.85186634,1.07185539\\Version=E
 S64L-GDVRevH.23\HF=-287.542582\RMSD=5.536e-09\PG=C01 [X(C6H7N1)]\\@


 ACTORS ARE SO FORTUNATE.  THEY CAN CHOOSE WHETHER
 THEY WILL APPEAR IN A TRAGEDY OR IN COMEDY,
 WHETHER THEY WILL SUFFER OF MAKE MERRY,
 LAUGH OR SHED TEARS.  BUT IN REAL LIFE IT IS DIFFERENT.
 MOST MEN AND WOMEN ARE FORCED TO PERFORM
 PARTS FOR WHICH THEY HAVE NO QUALIFICATIONS.
 THE WORLD IS A STAGE, BUT THE PLAY IS BADLY CAST.

                                   -- OSCAR WILDE
 Job cpu time:  0 days  1 hours 12 minutes 47.8 seconds.
 File lengths (MBytes):  RWF=    159 Int=      0 D2E=      0 Chk=     30 Scr=      1
 Normal termination of Gaussian DV at Wed Jul 29 17:39:12 2015.
